    6
Geometry Step: 506
    C      0.00000000      0.00000000      0.00000000      3.94759832
    O     -1.17890933      0.79886993      0.00000015      6.45795626
    H     -1.95277478      0.20148802     -0.00000032      0.69445562
    H      0.87979377      0.66278711     -0.00000011      0.94873979
    H      0.04909684     -0.65226201      0.89850254      0.97562501
    H      0.04909658     -0.65226197     -0.89850257      0.97562501
